# vtk DataFile Version 3.0
vtk output
ASCII
DATASET UNSTRUCTURED_GRID
POINTS 27 float 
0 0 0
1 0 0
2 0 0
0 1 0
1 1 0
2 1 0
0 0 1
1 0 1
2 0 1
0 1 1
1 1 1
2 1 1
0 0 2
1 0 2
2 0 2
0 1 2
1 1 2
2 1 2
0 1 0.995017
1 1 0.828619
2 1 0.66223
0 0.990033 1
0 0 1.49502
1 0.657807 1
1 0 1.3289
2 0.323333 1
2 0 1.1614
CELLS 24 120
4 10 23 18 19
4 23 21 9 18
4 10 23 9 18
4 11 25 19 20
4 25 23 10 19
4 11 25 10 19
4 16 13 22 24
4 16 22 23 24
4 15 21 23 22
4 12 15 16 22
4 15 23 16 22
4 12 16 13 22
4 9 23 15 21
4 16 15 9 23
4 9 10 16 23
4 17 14 24 26
4 17 24 25 26
4 16 23 25 24
4 13 16 17 24
4 16 25 17 24
4 13 17 14 24
4 10 25 16 23
4 17 16 10 25
4 10 11 17 25
CELL_TYPES 24
10
10
10
10
10
10
10
10
10
10
10
10
10
10
10
10
10
10
10
10
10
10
10
10
POINT_DATA 27
SCALARS pointvar float 1
LOOKUP_TABLE default
10.1
20.1
30.1
40.1
50.2
60.2
70.2
80.2
90.3
100.3
110.3
120.3
130.4
140.4
150.4
160.4
170.5
180.5
100
100
100
100
100
100
100
100
100
